# LAMMPS data file written by OVITO Basic 3.3.1

4850 atoms 
3 atom types

0 55 xlo xhi
0 55 ylo yhi
0 55 zlo zhi

Masses

1 12.0107
2 1.008
3 15.9994

Atoms  # charge

1 1 0.0 20.63 34.025 46.301
2 3 0.0 19.653 34.575 46.858
3 3 0.0 20.335 33.004 45.349
4 1 0.0 22.157 34.546 46.249
5 2 0.0 19.326 33.189 45.244
6 1 0.0 23.776 35.966 47.336
7 2 0.0 23.85 36.839 48.024
8 1 0.0 22.464 35.727 46.912
9 2 0.0 21.624 36.357 47.453
10 1 0.0 24.418 34.19 45.824
11 2 0.0 25.234 33.672 45.19
12 1 0.0 23.152 33.78 45.632
13 2 0.0 22.871 32.829 45.212
14 1 0.0 24.776 35.078 46.799
15 1 0.0 26.196 35.429 47.343
16 3 0.0 26.403 36.185 48.3
17 3 0.0 27.293 34.874 46.598
18 1 0.0 28.492 35.247 47.175
19 2 0.0 28.555 36.23 47.487
20 2 0.0 28.405 34.639 48.143
21 1 0.0 36.598 6.888 38.176
22 3 0.0 37.788 6.858 37.788
23 3 0.0 36.383 7.103 39.57
24 1 0.0 35.272 7.069 37.274
25 2 0.0 37.337 7.401 39.822
26 1 0.0 34.376 6.835 35.046
27 2 0.0 34.693 6.773 33.98
28 1 0.0 35.431 7.18 35.898
29 2 0.0 36.506 7.193 35.41
30 1 0.0 32.962 6.97 37.005
31 2 0.0 31.908 7.099 37.461
32 1 0.0 34.001 7.023 37.856
33 2 0.0 33.936 6.846 38.916
34 1 0.0 33.095 6.653 35.682
35 1 0.0 31.998 6.264 34.643
36 3 0.0 32.239 5.903 33.485
37 3 0.0 30.643 6.433 35.09
38 1 0.0 29.766 6.053 34.092
39 2 0.0 30.011 6.36 33.136
40 2 0.0 29.983 4.927 34.101
41 1 0.0 -0.044 31.956 45.753
42 3 0.0 -0.317 32.796 46.641
43 3 0.0 -0.281 32.35 44.402
44 1 0.0 0.863 30.628 45.899
45 2 0.0 -0.416 33.358 44.565
46 1 0.0 1.737 29.02 47.471
47 2 0.0 1.958 28.89 48.554
48 1 0.0 1.397 30.339 47.148
49 2 0.0 1.235 31.068 48.062
50 1 0.0 1.616 28.577 45.095
51 2 0.0 1.907 27.917 44.192
52 1 0.0 1.025 29.754 44.82
53 2 0.0 0.515 29.983 43.9
54 1 0.0 1.764 28.096 46.365
55 1 0.0 2.146 26.659 46.839
56 3 0.0 2.162 26.302 48.023
57 3 0.0 2.572 25.763 45.799
58 1 0.0 2.877 24.527 46.336
59 2 0.0 3.405 24.539 47.224
60 2 0.0 1.815 24.211 46.634
61 1 0.0 12.109 9.63 23.468
62 3 0.0 12.356 8.408 23.354
63 3 0.0 11.806 10.103 24.779
64 1 0.0 12.43 10.803 22.407
65 2 0.0 12.111 9.274 25.309
66 1 0.0 12.869 11.269 20.081
67 2 0.0 13.215 10.779 19.142
68 1 0.0 13.024 10.447 21.203
69 2 0.0 13.332 9.329 20.984
70 1 0.0 12.154 12.982 21.633
71 2 0.0 11.991 14.101 21.871
72 1 0.0 12.035 12.121 22.66
73 2 0.0 11.498 12.323 23.571
74 1 0.0 12.328 12.581 20.339
75 1 0.0 12.192 13.405 19.021
76 3 0.0 12.281 12.918 17.888
77 3 0.0 12.033 14.823 19.199
78 1 0.0 11.918 15.442 17.969
79 2 0.0 12.561 15.106 17.233
80 2 0.0 10.891 15.027 17.671
81 1 0.0 1.448 20.451 37.667
82 3 0.0 0.471 19.678 37.545
83 3 0.0 2.379 20.151 38.706
84 1 0.0 1.99 21.531 36.595
85 2 0.0 2.053 19.197 38.923
86 1 0.0 1.376 22.861 34.679
87 2 0.0 0.626 22.914 33.858
88 1 0.0 1.298 21.663 35.399
89 2 0.0 0.373 20.972 35.151
90 1 0.0 3.308 23.369 36.045
91 2 0.0 4.287 23.963 36.196
92 1 0.0 3.067 22.367 36.908
93 2 0.0 3.509 22.28 37.886
94 1 0.0 2.405 23.778 35.104
95 1 0.0 2.395 25.077 34.241
96 3 0.0 1.474 25.396 33.48
97 3 0.0 3.59 25.873 34.317
98 1 0.0 3.462 26.994 33.52
99 2 0.0 3.029 26.842 32.594
100 2 0.0 2.659 27.54 34.131
101 1 0.0 5.747 37.894 0.467
102 3 0.0 6.249 37.672 -0.659
103 3 0.0 4.392 37.486 0.657
104 1 0.0 6.52 38.253 1.837
105 2 0.0 4.297 36.898 -0.184
106 1 0.0 8.57 39.139 2.751
107 2 0.0 9.638 39.313 2.49
108 1 0.0 7.904 38.365 1.793
109 2 0.0 8.5 38.153 0.796
110 1 0.0 6.521 39.026 4.034
111 2 0.0 5.983 39.105 5.053
112 1 0.0 5.806 38.533 3.007
113 2 0.0 4.73 38.518 2.96
114 1 0.0 7.779 39.538 3.889
115 1 0.0 8.617 40.4 4.884
116 3 0.0 9.718 40.894 4.615
117 3 0.0 8.061 40.525 6.204
118 1 0.0 8.884 41.309 6.99
119 2 0.0 9.898 41.134 6.896
120 2 0.0 8.711 42.312 6.459
121 1 0.0 0.421 24.773 15.792
122 3 0.0 -0.537 24.938 16.582
123 3 0.0 1.313 25.875 15.626
124 1 0.0 0.986 23.379 15.206
125 2 0.0 0.996 26.441 16.426
126 1 0.0 0.426 21.075 14.762
127 2 0.0 -0.29 20.277 15.063
128 1 0.0 0.341 22.207 15.58
129 2 0.0 -0.559 22.226 16.343
130 1 0.0 2.291 22.186 13.691
131 2 0.0 3.252 22.12 13.053
132 1 0.0 2.033 23.368 14.279
133 2 0.0 2.436 24.313 13.957
134 1 0.0 1.42 21.133 13.719
135 1 0.0 1.421 19.827 12.866
136 3 0.0 0.526 18.974 12.905
137 3 0.0 2.597 19.618 12.066
138 1 0.0 2.482 18.438 11.356
139 2 0.0 2.09 17.636 11.876
140 2 0.0 1.644 18.758 10.641
141 1 0.0 24.286 42.677 0.659
142 3 0.0 24.66 42.162 -0.419
143 3 0.0 22.892 42.951 0.79
144 1 0.0 25.101 42.75 2.051
145 2 0.0 22.559 42.407 -0.019
146 1 0.0 27.303 42.667 3.034
147 2 0.0 28.338 42.312 2.828
148 1 0.0 26.382 42.212 2.084
149 2 0.0 26.839 41.672 1.139
150 1 0.0 25.399 43.607 4.195
151 2 0.0 24.931 44.004 5.174
152 1 0.0 24.565 43.416 3.157
153 2 0.0 23.605 43.892 3.046
154 1 0.0 26.756 43.473 4.097
155 1 0.0 27.868 43.931 5.09
156 3 0.0 29.08 43.843 4.859
157 3 0.0 27.398 44.4 6.364
158 1 0.0 28.468 44.781 7.152
159 2 0.0 29.289 44.154 7.129
160 2 0.0 28.791 45.705 6.554
161 1 0.0 49.64 32.849 44.34
162 3 0.0 50.707 32.888 43.687
163 3 0.0 49.263 34.042 45.025
164 1 0.0 48.457 31.756 44.23
165 2 0.0 49.924 34.688 44.569
166 1 0.0 47.933 29.505 43.538
167 2 0.0 48.302 28.686 42.879
168 1 0.0 48.622 30.706 43.335
169 2 0.0 49.574 30.644 42.64
170 1 0.0 46.525 30.755 45.058
171 2 0.0 45.522 30.86 45.622
172 1 0.0 47.346 31.819 45.078
173 2 0.0 47.315 32.605 45.813
174 1 0.0 46.878 29.549 44.519
175 1 0.0 46.186 28.159 44.669
176 3 0.0 46.644 27.105 44.211
177 3 0.0 44.903 28.179 45.317
178 1 0.0 44.393 26.897 45.395
179 2 0.0 44.51 26.313 44.551
180 2 0.0 45.142 26.468 46.151
181 1 0.0 0.103 29.486 38.664
182 3 0.0 -0.885 29.099 37.999
183 3 0.0 0.157 29.076 40.03
184 1 0.0 1.493 30.086 38.105
185 2 0.0 -0.58 28.356 39.996
186 1 0.0 2.537 31.166 36.218
187 2 0.0 2.41 31.326 35.123
188 1 0.0 1.634 30.229 36.73
189 2 0.0 0.783 29.875 35.992
190 1 0.0 3.508 31.205 38.434
191 2 0.0 4.41 31.433 39.118
192 1 0.0 2.483 30.531 38.986
193 2 0.0 2.282 30.478 40.043
194 1 0.0 3.466 31.723 37.17
195 1 0.0 4.417 32.758 36.494
196 3 0.0 4.233 33.234 35.367
197 3 0.0 5.602 33.08 37.24
198 1 0.0 6.359 34.006 36.547
199 2 0.0 6.445 33.847 35.53
200 2 0.0 5.651 34.903 36.643
201 1 0.0 30.942 40.335 9.141
202 3 0.0 32.012 40.507 8.514
203 3 0.0 29.953 39.523 8.51
204 1 0.0 30.662 40.61 10.707
205 2 0.0 30.544 39.121 7.768
206 1 0.0 31.414 41.84 12.64
207 2 0.0 32.308 42.366 13.047
208 1 0.0 31.7 41.124 11.473
209 2 0.0 32.769 41.305 11.005
210 1 0.0 29.2 40.876 12.499
211 2 0.0 28.21 40.582 13.018
212 1 0.0 29.386 40.421 11.247
213 2 0.0 28.597 40.106 10.585
214 1 0.0 30.055 41.749 13.111
215 1 0.0 29.848 42.589 14.409
216 3 0.0 30.656 43.425 14.828
217 3 0.0 28.666 42.27 15.163
218 1 0.0 28.588 43.078 16.282
219 2 0.0 29.474 43.227 16.792
220 2 0.0 28.387 44.075 15.751
221 1 0.0 11.622 1.278 27.636
222 3 0.0 10.972 0.456 28.322
223 3 0.0 10.905 2.408 27.141
224 1 0.0 13.226 1.422 27.528
225 2 0.0 10.056 2.308 27.717
226 1 0.0 15.317 0.259 27.829
227 2 0.0 15.763 -0.614 28.358
228 1 0.0 14.009 0.528 28.246
229 2 0.0 13.517 -0.279 28.953
230 1 0.0 15.13 2.262 26.484
231 2 0.0 15.643 3.124 25.911
232 1 0.0 13.801 2.36 26.664
233 2 0.0 13.144 2.967 26.065
234 1 0.0 15.851 1.154 26.832
235 1 0.0 17.307 0.758 26.437
236 3 0.0 17.835 -0.321 26.733
237 3 0.0 18.058 1.779 25.758
238 1 0.0 19.323 1.312 25.456
239 2 0.0 19.791 0.767 26.199
240 2 0.0 19.027 0.534 24.667
241 1 0.0 45.842 33.971 35.793
242 3 0.0 46.434 34.63 34.908
243 3 0.0 44.828 34.653 36.53
244 1 0.0 45.819 32.368 35.978
245 2 0.0 44.737 35.481 35.924
246 1 0.0 46.99 30.324 35.458
247 2 0.0 47.731 29.899 34.743
248 1 0.0 46.555 31.6 35.084
249 2 0.0 47.136 32.1 34.186
250 1 0.0 45.368 30.469 37.248
251 2 0.0 44.702 29.939 38.029
252 1 0.0 45.154 31.784 37.06
253 2 0.0 44.675 32.435 37.772
254 1 0.0 46.396 29.789 36.658
255 1 0.0 46.959 28.371 36.984
256 3 0.0 47.96 27.883 36.448
257 3 0.0 46.178 27.6 37.914
258 1 0.0 46.775 26.372 38.127
259 2 0.0 47.148 25.901 37.287
260 2 0.0 47.703 26.737 38.693
261 1 0.0 27.432 12.486 1.291
262 3 0.0 28.504 12.216 0.704
263 3 0.0 26.871 11.459 2.108
264 1 0.0 26.782 13.944 1.534
265 2 0.0 27.689 10.832 2.137
266 1 0.0 26.743 16.223 0.745
267 2 0.0 27.343 16.953 0.156
268 1 0.0 27.451 15.048 1.021
269 2 0.0 28.488 14.928 0.47
270 1 0.0 24.986 15.299 2.129
271 2 0.0 24.046 15.464 2.781
272 1 0.0 25.539 14.074 2.162
273 2 0.0 25.025 13.177 2.46
274 1 0.0 25.407 16.286 1.282
275 1 0.0 24.71 17.631 0.908
276 3 0.0 25.136 18.417 0.053
277 3 0.0 23.552 17.961 1.693
278 1 0.0 23.021 19.164 1.268
279 2 0.0 23.705 19.91 1.061
280 2 0.0 22.642 18.823 0.241
281 1 0.0 6.467 38.913 36.205
282 3 0.0 5.591 38.321 36.875
283 3 0.0 7.688 39.221 36.875
284 1 0.0 6.546 39.061 34.599
285 2 0.0 7.55 38.632 37.709
286 1 0.0 5.253 39.002 32.564
287 2 0.0 4.294 38.614 32.15
288 1 0.0 5.524 38.503 33.843
289 2 0.0 4.652 37.894 34.355
290 1 0.0 7.429 40.052 32.686
291 2 0.0 8.337 40.52 32.146
292 1 0.0 7.566 39.809 34.002
293 2 0.0 8.281 40.294 34.644
294 1 0.0 6.25 39.886 32.015
295 1 0.0 5.842 40.387 30.595
296 3 0.0 4.709 40.261 30.116
297 3 0.0 6.91 40.948 29.812
298 1 0.0 6.429 41.358 28.584
299 2 0.0 5.764 40.716 28.123
300 2 0.0 5.783 42.235 28.945
301 1 0.0 30.296 41.131 42.793
302 3 0.0 31.35 41.099 43.47
303 3 0.0 30.34 41.866 41.571
304 1 0.0 29.006 40.171 42.934
305 2 0.0 31.362 41.981 41.506
306 1 0.0 27.814 38.704 44.433
307 2 0.0 27.956 38.094 45.353
308 1 0.0 29.021 39.202 43.929
309 2 0.0 29.969 39.052 44.617
310 1 0.0 26.781 39.668 42.468
311 2 0.0 25.896 39.697 41.725
312 1 0.0 27.876 40.374 42.135
313 2 0.0 27.887 41.197 41.441
314 1 0.0 26.636 39.04 43.673
315 1 0.0 25.352 38.442 44.328
316 3 0.0 25.312 37.975 45.472
317 3 0.0 24.197 38.385 43.473
318 1 0.0 23.127 37.845 44.161
319 2 0.0 23.34 37.029 44.757
320 2 0.0 22.954 38.707 44.899
321 1 0.0 14.644 47.821 47.769
322 3 0.0 13.864 48.735 48.122
323 3 0.0 14.05 46.653 47.205
324 1 0.0 16.239 47.922 47.539
325 2 0.0 13.103 47.029 47.053
326 1 0.0 18.218 49.185 48.09
327 2 0.0 18.541 50.187 48.455
328 1 0.0 16.855 49.143 47.777
329 2 0.0 16.224 50.092 48.088
330 1 0.0 18.32 46.923 47.237
331 2 0.0 18.945 46.054 46.801
332 1 0.0 16.983 46.787 47.199
333 2 0.0 16.464 45.847 47.114
334 1 0.0 18.947 47.962 47.865
335 1 0.0 20.45 48.12 48.255
336 3 0.0 20.899 49.068 48.91
337 3 0.0 21.33 47.114 47.724
338 1 0.0 22.626 47.355 48.138
339 2 0.0 22.931 48.342 48.112
340 2 0.0 22.488 47.123 49.253
341 1 0.0 -0.667 5.864 9.7
342 3 0.0 -1.204 5.583 8.604
343 3 0.0 -0.456 4.783 10.607
344 1 0.0 0.137 7.209 10.087
345 2 0.0 -0.63 4.006 9.952
346 1 0.0 0.451 9.532 9.516
347 2 0.0 0.313 10.251 8.677
348 1 0.0 0.241 8.205 9.124
349 2 0.0 -0.201 8.051 8.04
350 1 0.0 1.095 8.627 11.666
351 2 0.0 1.655 8.754 12.668
352 1 0.0 0.63 7.397 11.382
353 2 0.0 0.443 6.629 12.112
354 1 0.0 0.825 9.723 10.895
355 1 0.0 1.025 11.235 11.222
356 3 0.0 0.659 12.158 10.484
357 3 0.0 1.756 11.51 12.429
358 1 0.0 1.865 12.875 12.615
359 2 0.0 2.081 13.429 11.77
360 2 0.0 0.761 13.099 12.835
361 1 0.0 5.066 21.895 30.407
362 3 0.0 4.321 21.212 31.146
363 3 0.0 6.258 22.41 30.998
364 1 0.0 5.045 21.98 28.795
365 2 0.0 6.25 21.845 31.86
366 1 0.0 3.678 21.639 26.837
367 2 0.0 2.77 21.095 26.49
368 1 0.0 4.083 21.243 28.117
369 2 0.0 3.337 20.537 28.699
370 1 0.0 5.677 23.002 26.801
371 2 0.0 6.477 23.575 26.195
372 1 0.0 5.912 22.843 28.116
373 2 0.0 6.576 23.456 28.699
374 1 0.0 4.505 22.634 26.202
375 1 0.0 3.959 23.005 24.788
376 3 0.0 2.835 22.692 24.376
377 3 0.0 4.892 23.681 23.928
378 1 0.0 4.296 23.96 22.713
379 2 0.0 3.713 23.206 22.313
380 2 0.0 3.545 24.747 23.075
381 1 0.0 3.782 13.357 31.993
382 3 0.0 2.941 13.935 32.718
383 3 0.0 3.502 13.314 30.594
384 1 0.0 5.302 12.965 32.368
385 2 0.0 2.739 14.007 30.576
386 1 0.0 6.817 12.537 34.196
387 2 0.0 6.948 12.731 35.285
388 1 0.0 5.755 13.264 33.647
389 2 0.0 5.066 13.834 34.418
390 1 0.0 7.271 11.799 31.937
391 2 0.0 8.014 11.366 31.165
392 1 0.0 6.103 12.264 31.46
393 2 0.0 5.669 11.98 30.516
394 1 0.0 7.549 11.707 33.272
395 1 0.0 8.7 10.939 33.992
396 3 0.0 8.807 10.844 35.22
397 3 0.0 9.711 10.397 33.125
398 1 0.0 10.67 9.739 33.872
399 2 0.0 10.967 10.211 34.741
400 2 0.0 10.026 8.858 34.225
401 1 0.0 50.504 0.08 30.921
402 3 0.0 51.019 -0.898 31.509
403 3 0.0 50.44 0.011 29.497
404 1 0.0 49.589 1.244 31.562
405 2 0.0 50.661 -0.989 29.388
406 1 0.0 49.023 2.38 33.614
407 2 0.0 49.054 2.251 34.72
408 1 0.0 49.346 1.203 32.929
409 2 0.0 49.754 0.315 33.592
410 1 0.0 48.564 3.332 31.438
411 2 0.0 48.037 4.136 30.798
412 1 0.0 49.135 2.309 30.776
413 2 0.0 49.428 2.335 29.741
414 1 0.0 48.691 3.512 32.786
415 1 0.0 48.357 4.767 33.651
416 3 0.0 48.599 4.858 34.861
417 3 0.0 47.655 5.816 32.964
418 1 0.0 47.421 6.87 33.827
419 2 0.0 47.115 6.614 34.779
420 2 0.0 48.505 7.222 33.954
421 1 0.0 22.846 29.027 0.342
422 3 0.0 21.701 28.521 0.312
423 3 0.0 22.924 30.445 0.211
424 1 0.0 24.213 28.341 0.859
425 2 0.0 21.927 30.661 0.353
426 1 0.0 25.304 26.231 1.279
427 2 0.0 25.083 25.155 1.465
428 1 0.0 24.153 27.027 1.304
429 2 0.0 23.126 26.446 1.351
430 1 0.0 26.535 28.3 1.027
431 2 0.0 27.529 28.881 1.123
432 1 0.0 25.431 29.024 0.772
433 2 0.0 25.43 30.008 0.336
434 1 0.0 26.543 26.933 1.049
435 1 0.0 27.755 25.951 1.032
436 3 0.0 27.648 24.721 0.96
437 3 0.0 29.044 26.566 1.194
438 1 0.0 30.034 25.602 1.158
439 2 0.0 29.834 24.731 1.677
440 2 0.0 29.94 25.311 0.053
441 1 0.0 2.429 41.049 31.843
442 3 0.0 1.493 40.609 32.549
443 3 0.0 3.722 41.088 32.445
444 1 0.0 2.446 41.247 30.241
445 2 0.0 3.519 40.502 33.268
446 1 0.0 1.054 41.524 28.291
447 2 0.0 0.017 41.345 27.926
448 1 0.0 1.294 40.928 29.534
449 2 0.0 0.35 40.477 30.081
450 1 0.0 3.397 42.13 28.308
451 2 0.0 4.346 42.438 27.726
452 1 0.0 3.557 41.81 29.604
453 2 0.0 4.387 42.121 30.215
454 1 0.0 2.173 42.222 27.708
455 1 0.0 1.791 42.852 26.332
456 3 0.0 0.63 42.967 25.922
457 3 0.0 2.902 43.23 25.502
458 1 0.0 2.442 43.777 24.319
459 2 0.0 1.641 43.295 23.881
460 2 0.0 2.0 44.746 24.746
461 1 0.0 46.724 14.167 25.24
462 3 0.0 47.718 14.67 25.811
463 3 0.0 46.618 12.744 25.271
464 1 0.0 45.369 14.914 24.78
465 2 0.0 47.333 12.56 25.989
466 1 0.0 44.412 17.056 24.216
467 2 0.0 44.575 18.148 24.356
468 1 0.0 45.272 16.281 25.004
469 2 0.0 46.132 16.869 25.56
470 1 0.0 43.381 14.964 23.569
471 2 0.0 42.466 14.398 23.148
472 1 0.0 44.368 14.217 24.094
473 2 0.0 44.537 13.178 23.87
474 1 0.0 43.475 16.318 23.407
475 1 0.0 42.575 17.278 22.567
476 3 0.0 42.805 18.483 22.412
477 3 0.0 41.379 16.686 22.033
478 1 0.0 40.671 17.626 21.308
479 2 0.0 40.61 18.567 21.73
480 2 0.0 41.403 17.746 20.434
481 1 0.0 37.635 32.973 15.493
482 3 0.0 38.481 32.558 14.668
483 3 0.0 36.3 33.139 15.015
484 1 0.0 37.763 33.01 17.102
485 2 0.0 36.399 32.629 14.125
486 1 0.0 39.327 33.017 18.939
487 2 0.0 40.378 32.749 19.191
488 1 0.0 38.949 32.562 17.67
489 2 0.0 39.815 32.12 17.001
490 1 0.0 37.031 33.742 19.188
491 2 0.0 36.154 34.039 19.878
492 1 0.0 36.745 33.563 17.886
493 2 0.0 35.887 33.976 17.384
494 1 0.0 38.305 33.71 19.683
495 1 0.0 38.837 34.178 21.073
496 3 0.0 40.033 34.191 21.388
497 3 0.0 37.824 34.528 22.031
498 1 0.0 38.413 34.929 23.215
499 2 0.0 39.217 34.364 23.532
500 2 0.0 38.874 35.911 22.845
501 1 0.0 34.41 36.457 48.396
502 2 0.0 34.808 37.492 48.398
503 1 0.0 33.261 36.207 47.616
504 2 0.0 32.514 37.03 47.168
505 1 0.0 34.811 34.255 48.877
506 2 0.0 35.586 33.451 49.156
507 1 0.0 33.667 33.891 48.182
508 2 0.0 33.443 32.794 47.969
509 1 0.0 35.257 35.516 48.796
510 1 0.0 36.863 35.712 49.043
511 3 0.0 37.577 34.771 49.332
512 3 0.0 37.185 36.984 49.019
513 1 0.0 38.596 37.394 48.649
514 2 0.0 39.401 37.186 49.444
515 2 0.0 38.942 36.768 47.886
516 1 0.0 32.784 34.851 47.73
517 1 0.0 31.473 34.371 47.265
518 3 0.0 31.12 33.317 47.472
519 3 0.0 30.791 35.293 46.488
520 1 0.0 29.475 34.998 46.155
521 2 0.0 29.259 35.807 45.348
522 2 0.0 29.448 33.941 45.648
523 1 0.0 24.843 5.134 30.499
524 2 0.0 24.701 5.687 29.549
525 1 0.0 25.644 5.744 31.488
526 2 0.0 26.399 6.661 31.325
527 1 0.0 24.116 3.434 31.848
528 2 0.0 23.292 2.663 32.073
529 1 0.0 24.911 3.909 32.881
530 2 0.0 24.818 3.473 33.93
531 1 0.0 23.955 4.179 30.746
532 1 0.0 22.567 3.922 29.918
533 3 0.0 21.772 3.07 30.267
534 3 0.0 22.54 4.64 28.821
535 1 0.0 21.21 5.027 28.209
536 2 0.0 20.633 4.177 27.689
537 2 0.0 20.535 5.248 28.976
538 1 0.0 25.822 4.921 32.659
539 1 0.0 26.812 5.16 33.722
540 3 0.0 26.966 4.423 34.565
541 3 0.0 27.435 6.393 33.628
542 1 0.0 28.507 6.632 34.479
543 2 0.0 28.662 7.775 34.331
544 2 0.0 28.157 6.437 35.581
545 1 0.0 4.933 18.811 47.38
546 2 0.0 5.801 18.613 48.041
547 1 0.0 4.859 20.084 46.774
548 2 0.0 5.478 21.06 47.093
549 1 0.0 3.197 17.917 46.186
550 2 0.0 2.706 16.969 45.756
551 1 0.0 2.99 19.139 45.564
552 2 0.0 2.266 19.228 44.689
553 1 0.0 4.294 17.737 46.935
554 1 0.0 4.809 16.189 47.068
555 3 0.0 4.194 15.272 46.557
556 3 0.0 5.838 16.11 47.878
557 1 0.0 6.823 14.969 47.731
558 2 0.0 6.448 13.937 48.076
559 2 0.0 6.962 14.77 46.714
560 1 0.0 3.663 20.267 45.988
561 1 0.0 3.177 21.556 45.472
562 3 0.0 2.181 21.645 44.944
563 3 0.0 4.091 22.587 45.612
564 1 0.0 3.653 23.872 45.318
565 2 0.0 4.658 24.457 45.307
566 2 0.0 3.204 23.873 44.234
567 1 0.0 11.707 19.467 13.305
568 2 0.0 12.532 19.553 12.569
569 1 0.0 12.032 18.961 14.583
570 2 0.0 13.032 18.371 14.88
571 1 0.0 9.574 20.077 13.865
572 2 0.0 8.679 20.771 13.656
573 1 0.0 9.756 19.56 15.139
574 2 0.0 8.979 19.739 15.954
575 1 0.0 10.627 20.191 13.044
576 1 0.0 10.505 21.357 11.901
577 3 0.0 9.497 22.028 11.788
578 3 0.0 11.548 21.338 11.106
579 1 0.0 11.959 22.6 10.377
580 2 0.0 11.278 22.919 9.506
581 2 0.0 11.821 23.419 11.012
582 1 0.0 10.884 18.827 15.446
583 1 0.0 10.86 18.083 16.715
584 3 0.0 9.902 17.934 17.297
585 3 0.0 12.115 17.689 17.148
586 1 0.0 12.174 16.831 18.239
587 2 0.0 13.308 16.867 18.494
588 2 0.0 11.572 17.313 19.123
589 1 0.0 4.416 32.059 30.141
590 2 0.0 4.384 32.038 29.032
591 1 0.0 4.725 30.851 30.801
592 2 0.0 4.698 29.752 30.322
593 1 0.0 4.526 33.354 32.025
594 2 0.0 4.713 34.398 32.472
595 1 0.0 4.78 32.226 32.79
596 2 0.0 5.081 32.324 33.885
597 1 0.0 4.547 33.261 30.688
598 1 0.0 4.905 34.646 29.892
599 3 0.0 5.085 35.689 30.489
600 3 0.0 4.825 34.469 28.594
601 1 0.0 5.63 35.354 27.665
602 2 0.0 5.255 36.438 27.559
603 2 0.0 6.565 35.537 28.096
604 1 0.0 4.679 30.964 32.238
605 1 0.0 4.682 29.833 33.179
606 3 0.0 4.546 29.986 34.291
607 3 0.0 4.96 28.616 32.579
608 1 0.0 4.808 27.473 33.353
609 2 0.0 5.313 26.673 32.676
610 2 0.0 5.445 27.598 34.33
611 1 0.0 11.729 44.193 11.635
612 2 0.0 12.737 43.89 11.982
613 1 0.0 10.946 43.213 10.988
614 2 0.0 11.338 42.174 10.538
615 1 0.0 10.048 45.74 11.767
616 2 0.0 9.612 46.65 12.322
617 1 0.0 9.199 44.882 11.086
618 2 0.0 8.088 45.12 10.991
619 1 0.0 11.235 45.289 12.196
620 1 0.0 11.856 46.066 13.497
621 3 0.0 11.287 47.02 13.993
622 3 0.0 13.047 45.602 13.789
623 1 0.0 13.569 45.714 15.206
624 2 0.0 13.877 46.771 15.543
625 2 0.0 12.781 45.545 15.872
626 1 0.0 9.681 43.72 10.517
627 1 0.0 8.784 43.025 9.58
628 3 0.0 7.852 43.52 9.174
629 3 0.0 9.146 41.71 9.342
630 1 0.0 8.466 41.032 8.338
631 2 0.0 8.817 39.94 8.525
632 2 0.0 7.316 41.103 8.555
633 1 0.0 3.48 13.36 8.009
634 2 0.0 3.493 12.35 8.467
635 1 0.0 3.784 14.454 8.847
636 2 0.0 3.797 14.449 10.045
637 1 0.0 3.487 14.58 6.072
638 2 0.0 3.636 14.582 4.931
639 1 0.0 3.73 15.737 6.797
640 2 0.0 3.984 16.711 6.265
641 1 0.0 3.565 13.39 6.685
642 1 0.0 3.93 12.122 5.716
643 3 0.0 4.066 12.263 4.516
644 3 0.0 3.907 10.999 6.394
645 1 0.0 4.733 9.82 5.921
646 2 0.0 4.343 9.283 4.981
647 2 0.0 5.645 10.172 5.552
648 1 0.0 3.676 15.727 8.176
649 1 0.0 3.661 17.038 8.844
650 3 0.0 3.477 17.994 8.268
651 3 0.0 3.987 16.978 10.188
652 1 0.0 3.824 18.136 10.937
653 2 0.0 4.371 17.848 11.922
654 2 0.0 4.417 19.003 10.415
655 1 0.0 32.196 46.399 11.785
656 2 0.0 32.941 45.696 12.21
657 1 0.0 31.067 45.838 11.15
658 2 0.0 30.948 44.703 10.785
659 1 0.0 31.414 48.549 11.727
660 2 0.0 31.432 49.598 12.201
661 1 0.0 30.283 48.124 11.046
662 2 0.0 29.411 48.835 10.871
663 1 0.0 32.247 47.64 12.252
664 1 0.0 33.121 48.147 13.54
665 3 0.0 33.043 49.291 13.946
666 3 0.0 33.957 47.214 13.93
667 1 0.0 34.433 47.186 15.368
668 2 0.0 35.184 48.007 15.661
669 2 0.0 33.638 47.449 15.993
670 1 0.0 30.191 46.83 10.575
671 1 0.0 29.1 46.55 9.627
672 3 0.0 28.513 47.384 9.138
673 3 0.0 28.822 45.201 9.488
674 1 0.0 27.933 44.833 8.486
675 2 0.0 27.736 43.72 8.757
676 2 0.0 26.94 45.44 8.629
677 1 0.0 40.811 21.923 46.036
678 2 0.0 40.469 21.331 45.163
679 1 0.0 41.14 23.277 45.811
680 2 0.0 41.346 23.79 44.747
681 1 0.0 40.949 22.058 48.317
682 2 0.0 40.608 21.639 49.333
683 1 0.0 41.338 23.385 48.218
684 2 0.0 41.412 24.038 49.15
685 1 0.0 40.505 21.42 47.225
686 1 0.0 39.483 20.172 47.506
687 3 0.0 39.199 19.831 48.638
688 3 0.0 39.167 19.569 46.385
689 1 0.0 37.86 18.81 46.283
690 2 0.0 37.817 17.812 46.854
691 2 0.0 37.121 19.337 46.801
692 1 0.0 41.634 23.942 46.991
693 1 0.0 42.307 25.251 47.007
694 3 0.0 42.757 25.674 47.955
695 3 0.0 42.237 25.923 45.799
696 1 0.0 42.994 27.081 45.668
697 2 0.0 42.567 27.519 44.679
698 2 0.0 42.722 27.804 46.55
699 1 0.0 10.83 37.687 34.437
700 2 0.0 11.366 37.473 33.491
701 1 0.0 10.246 36.593 35.111
702 2 0.0 10.036 35.505 34.652
703 1 0.0 10.458 39.186 36.126
704 2 0.0 10.785 40.161 36.644
705 1 0.0 9.811 38.204 36.861
706 2 0.0 9.517 38.392 37.946
707 1 0.0 11.124 38.845 35.014
708 1 0.0 12.355 39.841 34.597
709 3 0.0 12.599 40.845 35.237
710 3 0.0 12.891 39.465 33.46
711 1 0.0 14.331 39.821 33.156
712 2 0.0 14.53 40.927 32.906
713 2 0.0 14.894 39.739 34.033
714 1 0.0 9.518 36.98 36.294
715 1 0.0 8.588 36.116 37.039
716 3 0.0 7.974 36.512 37.902
717 3 0.0 8.626 34.791 36.639
718 1 0.0 7.659 33.94 37.16
719 2 0.0 8.073 32.903 36.836
720 2 0.0 7.691 34.012 38.33
721 1 0.0 27.218 45.63 21.722
722 2 0.0 27.906 45.566 22.589
723 1 0.0 27.32 44.622 20.739
724 2 0.0 28.232 43.858 20.598
725 1 0.0 25.313 46.562 20.859
726 2 0.0 24.357 47.17 21.06
727 1 0.0 25.341 45.656 19.81
728 2 0.0 24.461 45.577 19.09
729 1 0.0 26.147 46.394 21.895
730 1 0.0 25.64 47.03 23.317
731 3 0.0 24.599 47.653 23.394
732 3 0.0 26.555 46.88 24.245
733 1 0.0 26.146 46.841 25.702
734 2 0.0 25.822 47.848 26.157
735 2 0.0 25.246 46.316 25.788
736 1 0.0 26.43 44.828 19.623
737 1 0.0 26.501 44.114 18.339
738 3 0.0 25.833 44.391 17.469
739 3 0.0 27.374 43.039 18.352
740 1 0.0 27.64 42.418 17.138
741 2 0.0 28.195 41.46 17.492
742 2 0.0 26.62 42.107 16.649
743 1 0.0 25.257 0.724 23.899
744 2 0.0 26.042 0.512 24.654
745 1 0.0 24.081 1.36 24.352
746 2 0.0 23.72 1.459 25.491
747 1 0.0 24.741 0.902 21.677
748 2 0.0 25.13 0.962 20.595
749 1 0.0 23.526 1.486 22.001
750 2 0.0 22.868 1.942 21.191
751 1 0.0 25.66 0.717 22.635
752 1 0.0 27.214 0.672 22.122
753 3 0.0 27.491 0.75 20.94
754 3 0.0 28.025 0.411 23.12
755 1 0.0 29.467 0.87 23.053
756 2 0.0 30.143 0.287 22.327
757 2 0.0 29.503 1.812 22.603
758 1 0.0 23.097 1.533 23.312
759 1 0.0 21.689 1.904 23.53
760 3 0.0 20.944 1.93 22.679
761 3 0.0 21.417 2.301 24.828
762 1 0.0 20.085 2.497 25.17
763 2 0.0 20.192 3.023 26.202
764 2 0.0 19.613 3.253 24.408
765 1 0.0 48.058 20.541 39.656
766 2 0.0 48.124 19.738 38.895
767 1 0.0 47.266 21.666 39.341
768 2 0.0 46.872 21.975 38.252
769 1 0.0 48.398 21.138 41.839
770 2 0.0 48.625 20.791 42.913
771 1 0.0 47.685 22.309 41.634
772 2 0.0 47.403 22.978 42.514
773 1 0.0 48.396 20.191 40.89
774 1 0.0 48.652 18.664 41.42
775 3 0.0 48.88 18.431 42.592
776 3 0.0 48.707 17.826 40.412
777 1 0.0 48.361 16.367 40.628
778 2 0.0 49.14 15.75 41.208
779 2 0.0 47.56 16.305 41.297
780 1 0.0 47.296 22.683 40.364
781 1 0.0 46.804 24.061 40.205
782 3 0.0 46.945 24.837 41.014
783 3 0.0 46.088 24.26 39.036
784 1 0.0 45.74 25.566 38.716
785 2 0.0 44.986 25.393 37.848
786 2 0.0 45.167 26.032 39.627
787 1 0.0 19.918 24.461 0.72
788 2 0.0 20.411 25.445 0.856
789 1 0.0 20.505 23.35 1.363
790 2 0.0 21.612 23.296 1.819
791 1 0.0 18.031 23.344 0.065
792 2 0.0 16.918 23.409 -0.219
793 1 0.0 18.531 22.172 0.613
794 2 0.0 17.873 21.245 0.696
795 1 0.0 18.657 24.504 0.31
796 1 0.0 17.717 25.841 0.231
797 3 0.0 16.543 25.771 -0.081
798 3 0.0 18.435 26.925 0.41
799 1 0.0 17.778 28.18 0.946
800 2 0.0 17.089 28.736 0.211
801 2 0.0 17.076 27.912 1.672
802 1 0.0 19.83 22.109 1.073
803 1 0.0 20.36 20.767 1.367
804 3 0.0 19.824 19.831 1.026
805 3 0.0 21.492 20.783 2.164
806 1 0.0 22.162 19.579 2.344
807 2 0.0 22.895 19.855 3.203
808 2 0.0 21.397 18.784 2.741
809 1 0.0 5.775 43.206 22.74
810 2 0.0 5.422 42.518 21.945
811 1 0.0 6.398 42.626 23.866
812 2 0.0 6.356 41.472 24.186
813 1 0.0 6.284 45.362 23.315
814 2 0.0 6.474 46.439 22.957
815 1 0.0 6.876 44.915 24.486
816 2 0.0 7.471 45.63 25.144
817 1 0.0 5.923 44.474 22.378
818 1 0.0 5.874 45.047 20.846
819 3 0.0 6.102 46.216 20.601
820 3 0.0 5.439 44.126 20.019
821 1 0.0 5.832 44.184 18.557
822 2 0.0 5.323 45.008 17.936
823 2 0.0 6.825 44.502 18.485
824 1 0.0 6.762 43.594 24.872
825 1 0.0 7.167 43.274 26.25
826 3 0.0 7.346 44.085 27.018
827 3 0.0 7.393 41.924 26.46
828 1 0.0 7.604 41.508 27.768
829 2 0.0 7.975 40.419 27.602
830 2 0.0 8.48 42.142 28.223
831 1 0.0 17.775 35.276 45.815
832 2 0.0 17.709 34.217 46.138
833 1 0.0 18.85 35.629 44.972
834 2 0.0 19.842 34.984 44.778
835 1 0.0 16.694 37.284 45.617
836 2 0.0 15.694 37.853 45.657
837 1 0.0 17.724 37.763 44.821
838 2 0.0 17.622 38.762 44.281
839 1 0.0 16.657 35.981 45.93
840 1 0.0 15.17 35.379 46.259
841 3 0.0 14.186 36.094 46.265
842 3 0.0 15.25 34.122 46.626
843 1 0.0 14.06 33.206 46.427
844 2 0.0 13.173 33.378 47.14
845 2 0.0 13.599 33.441 45.519
846 1 0.0 18.886 37.037 44.661
847 1 0.0 20.023 37.741 44.045
848 3 0.0 20.025 38.864 43.916
849 3 0.0 21.006 36.89 43.569
850 1 0.0 22.193 37.467 43.135
851 2 0.0 22.702 36.565 42.606
852 2 0.0 21.938 38.282 42.332
853 1 0.0 28.747 47.448 48.855
854 2 0.0 29.363 48.305 48.515
855 1 0.0 27.509 47.245 48.207
856 2 0.0 26.928 48.037 47.52
857 1 0.0 28.688 45.482 50.025
858 2 0.0 29.286 44.648 50.546
859 1 0.0 27.437 45.2 49.496
860 2 0.0 26.958 44.178 49.655
861 1 0.0 29.394 46.51 49.533
862 1 0.0 31.019 46.387 49.692
863 3 0.0 31.528 45.444 50.267
864 3 0.0 31.612 47.471 49.251
865 1 0.0 33.041 47.396 48.757
866 2 0.0 33.845 47.266 49.571
867 2 0.0 33.175 46.498 48.238
868 1 0.0 26.754 46.148 48.762
869 1 0.0 25.335 45.872 48.488
870 3 0.0 24.776 45.052 49.031
871 3 0.0 24.812 46.635 47.458
872 1 0.0 23.44 46.571 47.249
873 2 0.0 23.342 47.11 46.224
874 2 0.0 23.136 45.446 47.116
875 1 0.0 3.441 18.547 14.439
876 2 0.0 4.051 19.219 13.801
877 1 0.0 3.573 17.158 14.226
878 2 0.0 4.064 16.629 13.269
879 1 0.0 2.173 18.343 16.333
880 2 0.0 1.839 18.813 17.329
881 1 0.0 2.184 16.963 16.196
882 2 0.0 1.779 16.295 17.026
883 1 0.0 2.971 19.088 15.555
884 1 0.0 3.407 20.538 16.179
885 3 0.0 2.982 20.916 17.253
886 3 0.0 4.121 21.219 15.315
887 1 0.0 5.095 22.269 15.808
888 2 0.0 4.622 23.238 16.209
889 2 0.0 5.55 21.924 16.683
890 1 0.0 2.694 16.373 15.057
891 1 0.0 2.407 14.941 14.873
892 3 0.0 1.632 14.407 15.5
893 3 0.0 3.234 14.327 13.948
894 1 0.0 2.922 13.025 13.578
895 2 0.0 3.881 12.719 12.997
896 2 0.0 2.843 12.372 14.549
897 1 0.0 3.094 25.424 16.848
898 2 0.0 2.81 24.656 16.1
899 1 0.0 3.85 24.994 17.96
900 2 0.0 3.996 23.862 18.324
901 1 0.0 3.301 27.655 17.312
902 2 0.0 3.311 28.731 16.904
903 1 0.0 4.009 27.353 18.466
904 2 0.0 4.522 28.178 19.063
905 1 0.0 3.033 26.682 16.431
906 1 0.0 2.825 27.172 14.882
907 3 0.0 2.864 28.35 14.582
908 3 0.0 2.494 26.16 14.116
909 1 0.0 2.803 26.208 12.634
910 2 0.0 2.147 26.92 12.01
911 2 0.0 3.732 26.666 12.496
912 1 0.0 4.112 26.05 18.907
913 1 0.0 4.627 25.856 20.272
914 3 0.0 4.719 26.717 20.998
915 3 0.0 5.062 24.565 20.52
916 1 0.0 5.395 24.244 21.83
917 2 0.0 5.917 23.215 21.685
918 2 0.0 6.188 25.02 22.212
919 1 0.0 15.756 6.914 35.904
920 2 0.0 16.472 7.416 36.586
921 1 0.0 14.959 7.739 35.083
922 2 0.0 14.776 8.916 35.221
923 1 0.0 15.131 4.957 34.895
924 2 0.0 15.406 3.869 34.641
925 1 0.0 14.266 5.657 34.067
926 2 0.0 13.754 5.136 33.192
927 1 0.0 16.0 5.633 35.66
928 1 0.0 17.363 4.82 36.062
929 3 0.0 17.532 3.664 35.724
930 3 0.0 18.109 5.536 36.87
931 1 0.0 19.603 5.295 36.924
932 2 0.0 19.934 4.325 37.448
933 2 0.0 19.949 5.095 35.958
934 1 0.0 14.017 6.997 34.281
935 1 0.0 12.883 7.581 33.546
936 3 0.0 12.124 6.933 33.015
937 3 0.0 12.911 8.965 33.498
938 1 0.0 11.792 9.608 32.983
939 2 0.0 12.19 10.694 32.865
940 2 0.0 11.569 9.169 31.918
941 1 0.0 45.372 11.987 36.586
942 2 0.0 44.673 11.948 37.445
943 1 0.0 45.369 10.888 35.7
944 2 0.0 44.892 9.808 35.908
945 1 0.0 46.734 13.29 35.288
946 2 0.0 47.062 14.353 34.994
947 1 0.0 46.853 12.257 34.369
948 2 0.0 47.358 12.433 33.363
949 1 0.0 45.834 13.191 36.276
950 1 0.0 45.285 14.613 36.872
951 3 0.0 45.716 15.676 36.468
952 3 0.0 44.471 14.411 37.88
953 1 0.0 43.42 15.449 38.217
954 2 0.0 43.812 16.416 38.704
955 2 0.0 43.038 15.845 37.329
956 1 0.0 46.356 11.002 34.654
957 1 0.0 46.775 9.91 33.761
958 3 0.0 47.624 10.039 33.025
959 3 0.0 45.973 8.784 33.851
960 1 0.0 46.396 7.644 33.179
961 2 0.0 45.447 6.976 33.25
962 2 0.0 46.58 7.922 32.055
963 1 0.0 35.299 22.43 1.607
964 2 0.0 35.457 21.666 2.394